   3   3   1   0
  0.3511650E+02  0.3183906E-09  0.3183906E-09  0.1200000E-08  0.5000000E-15
  1.000000000000000E-004
  CAR 
 MoS2                                    
     10.00000000    -10.00000000 2000      0.56653327      1.00000000
    -10.000  0.0000E+00  0.1200E+02
     -9.990  0.0000E+00  0.1200E+02
     -9.980  0.0000E+00  0.1200E+02
     -9.970  0.0000E+00  0.1200E+02
     -9.960  0.0000E+00  0.1200E+02
     -9.950  0.0000E+00  0.1200E+02
     -9.940  0.0000E+00  0.1200E+02
     -9.930  0.0000E+00  0.1200E+02
     -9.920  0.0000E+00  0.1200E+02
     -9.910  0.0000E+00  0.1200E+02
     -9.900  0.0000E+00  0.1200E+02
     -9.890  0.0000E+00  0.1200E+02
     -9.880  0.0000E+00  0.1200E+02
     -9.870  0.0000E+00  0.1200E+02
     -9.860  0.0000E+00  0.1200E+02
     -9.850  0.0000E+00  0.1200E+02
     -9.840  0.0000E+00  0.1200E+02
     -9.830  0.0000E+00  0.1200E+02
     -9.820  0.0000E+00  0.1200E+02
     -9.810  0.0000E+00  0.1200E+02
     -9.800  0.0000E+00  0.1200E+02
     -9.790  0.0000E+00  0.1200E+02
     -9.780  0.0000E+00  0.1200E+02
     -9.770  0.0000E+00  0.1200E+02
     -9.760  0.0000E+00  0.1200E+02
     -9.750  0.0000E+00  0.1200E+02
     -9.740  0.0000E+00  0.1200E+02
     -9.730  0.0000E+00  0.1200E+02
     -9.720  0.0000E+00  0.1200E+02
     -9.710  0.0000E+00  0.1200E+02
     -9.700  0.0000E+00  0.1200E+02
     -9.690  0.0000E+00  0.1200E+02
     -9.680  0.0000E+00  0.1200E+02
     -9.670  0.0000E+00  0.1200E+02
     -9.660  0.0000E+00  0.1200E+02
     -9.650  0.0000E+00  0.1200E+02
     -9.640  0.0000E+00  0.1200E+02
     -9.630  0.0000E+00  0.1200E+02
     -9.620  0.0000E+00  0.1200E+02
     -9.610  0.0000E+00  0.1200E+02
     -9.600  0.0000E+00  0.1200E+02
     -9.590  0.0000E+00  0.1200E+02
     -9.580  0.0000E+00  0.1200E+02
     -9.570  0.0000E+00  0.1200E+02
     -9.560  0.0000E+00  0.1200E+02
     -9.550  0.0000E+00  0.1200E+02
     -9.540  0.0000E+00  0.1200E+02
     -9.530  0.0000E+00  0.1200E+02
     -9.520  0.0000E+00  0.1200E+02
     -9.510  0.0000E+00  0.1200E+02
     -9.500  0.0000E+00  0.1200E+02
     -9.490  0.0000E+00  0.1200E+02
     -9.480  0.0000E+00  0.1200E+02
     -9.470  0.0000E+00  0.1200E+02
     -9.460  0.0000E+00  0.1200E+02
     -9.450  0.0000E+00  0.1200E+02
     -9.440  0.0000E+00  0.1200E+02
     -9.430  0.0000E+00  0.1200E+02
     -9.420  0.0000E+00  0.1200E+02
     -9.410  0.0000E+00  0.1200E+02
     -9.400  0.0000E+00  0.1200E+02
     -9.390  0.0000E+00  0.1200E+02
     -9.380  0.0000E+00  0.1200E+02
     -9.370  0.0000E+00  0.1200E+02
     -9.360  0.0000E+00  0.1200E+02
     -9.350  0.0000E+00  0.1200E+02
     -9.340  0.0000E+00  0.1200E+02
     -9.330  0.0000E+00  0.1200E+02
     -9.320  0.0000E+00  0.1200E+02
     -9.310  0.0000E+00  0.1200E+02
     -9.300  0.0000E+00  0.1200E+02
     -9.290  0.0000E+00  0.1200E+02
     -9.280  0.0000E+00  0.1200E+02
     -9.270  0.0000E+00  0.1200E+02
     -9.260  0.0000E+00  0.1200E+02
     -9.250  0.0000E+00  0.1200E+02
     -9.240  0.0000E+00  0.1200E+02
     -9.230  0.0000E+00  0.1200E+02
     -9.220  0.0000E+00  0.1200E+02
     -9.210  0.0000E+00  0.1200E+02
     -9.200  0.0000E+00  0.1200E+02
     -9.190  0.0000E+00  0.1200E+02
     -9.180  0.0000E+00  0.1200E+02
     -9.170  0.0000E+00  0.1200E+02
     -9.160  0.0000E+00  0.1200E+02
     -9.150  0.0000E+00  0.1200E+02
     -9.140  0.0000E+00  0.1200E+02
     -9.130  0.0000E+00  0.1200E+02
     -9.120  0.0000E+00  0.1200E+02
     -9.110  0.0000E+00  0.1200E+02
     -9.100  0.0000E+00  0.1200E+02
     -9.090  0.0000E+00  0.1200E+02
     -9.080  0.0000E+00  0.1200E+02
     -9.070  0.0000E+00  0.1200E+02
     -9.060  0.0000E+00  0.1200E+02
     -9.050  0.0000E+00  0.1200E+02
     -9.040  0.0000E+00  0.1200E+02
     -9.030  0.0000E+00  0.1200E+02
     -9.020  0.0000E+00  0.1200E+02
     -9.010  0.0000E+00  0.1200E+02
     -8.999  0.0000E+00  0.1200E+02
     -8.989  0.0000E+00  0.1200E+02
     -8.979  0.0000E+00  0.1200E+02
     -8.969  0.0000E+00  0.1200E+02
     -8.959  0.0000E+00  0.1200E+02
     -8.949  0.0000E+00  0.1200E+02
     -8.939  0.0000E+00  0.1200E+02
     -8.929  0.0000E+00  0.1200E+02
     -8.919  0.0000E+00  0.1200E+02
     -8.909  0.0000E+00  0.1200E+02
     -8.899  0.0000E+00  0.1200E+02
     -8.889  0.0000E+00  0.1200E+02
     -8.879  0.0000E+00  0.1200E+02
     -8.869  0.0000E+00  0.1200E+02
     -8.859  0.0000E+00  0.1200E+02
     -8.849  0.0000E+00  0.1200E+02
     -8.839  0.0000E+00  0.1200E+02
     -8.829  0.0000E+00  0.1200E+02
     -8.819  0.0000E+00  0.1200E+02
     -8.809  0.0000E+00  0.1200E+02
     -8.799  0.0000E+00  0.1200E+02
     -8.789  0.0000E+00  0.1200E+02
     -8.779  0.0000E+00  0.1200E+02
     -8.769  0.0000E+00  0.1200E+02
     -8.759  0.0000E+00  0.1200E+02
     -8.749  0.0000E+00  0.1200E+02
     -8.739  0.0000E+00  0.1200E+02
     -8.729  0.0000E+00  0.1200E+02
     -8.719  0.0000E+00  0.1200E+02
     -8.709  0.0000E+00  0.1200E+02
     -8.699  0.0000E+00  0.1200E+02
     -8.689  0.0000E+00  0.1200E+02
     -8.679  0.0000E+00  0.1200E+02
     -8.669  0.0000E+00  0.1200E+02
     -8.659  0.0000E+00  0.1200E+02
     -8.649  0.0000E+00  0.1200E+02
     -8.639  0.0000E+00  0.1200E+02
     -8.629  0.0000E+00  0.1200E+02
     -8.619  0.0000E+00  0.1200E+02
     -8.609  0.0000E+00  0.1200E+02
     -8.599  0.0000E+00  0.1200E+02
     -8.589  0.0000E+00  0.1200E+02
     -8.579  0.0000E+00  0.1200E+02
     -8.569  0.0000E+00  0.1200E+02
     -8.559  0.0000E+00  0.1200E+02
     -8.549  0.0000E+00  0.1200E+02
     -8.539  0.0000E+00  0.1200E+02
     -8.529  0.0000E+00  0.1200E+02
     -8.519  0.0000E+00  0.1200E+02
     -8.509  0.0000E+00  0.1200E+02
     -8.499  0.0000E+00  0.1200E+02
     -8.489  0.0000E+00  0.1200E+02
     -8.479  0.0000E+00  0.1200E+02
     -8.469  0.0000E+00  0.1200E+02
     -8.459  0.0000E+00  0.1200E+02
     -8.449  0.0000E+00  0.1200E+02
     -8.439  0.0000E+00  0.1200E+02
     -8.429  0.0000E+00  0.1200E+02
     -8.419  0.0000E+00  0.1200E+02
     -8.409  0.0000E+00  0.1200E+02
     -8.399  0.0000E+00  0.1200E+02
     -8.389  0.0000E+00  0.1200E+02
     -8.379  0.0000E+00  0.1200E+02
     -8.369  0.0000E+00  0.1200E+02
     -8.359  0.0000E+00  0.1200E+02
     -8.349  0.0000E+00  0.1200E+02
     -8.339  0.0000E+00  0.1200E+02
     -8.329  0.0000E+00  0.1200E+02
     -8.319  0.0000E+00  0.1200E+02
     -8.309  0.0000E+00  0.1200E+02
     -8.299  0.0000E+00  0.1200E+02
     -8.289  0.0000E+00  0.1200E+02
     -8.279  0.0000E+00  0.1200E+02
     -8.269  0.0000E+00  0.1200E+02
     -8.259  0.0000E+00  0.1200E+02
     -8.249  0.0000E+00  0.1200E+02
     -8.239  0.0000E+00  0.1200E+02
     -8.229  0.0000E+00  0.1200E+02
     -8.219  0.0000E+00  0.1200E+02
     -8.209  0.0000E+00  0.1200E+02
     -8.199  0.0000E+00  0.1200E+02
     -8.189  0.0000E+00  0.1200E+02
     -8.179  0.0000E+00  0.1200E+02
     -8.169  0.0000E+00  0.1200E+02
     -8.159  0.0000E+00  0.1200E+02
     -8.149  0.0000E+00  0.1200E+02
     -8.139  0.0000E+00  0.1200E+02
     -8.129  0.0000E+00  0.1200E+02
     -8.119  0.0000E+00  0.1200E+02
     -8.109  0.0000E+00  0.1200E+02
     -8.099  0.0000E+00  0.1200E+02
     -8.089  0.0000E+00  0.1200E+02
     -8.079  0.0000E+00  0.1200E+02
     -8.069  0.0000E+00  0.1200E+02
     -8.059  0.0000E+00  0.1200E+02
     -8.049  0.0000E+00  0.1200E+02
     -8.039  0.0000E+00  0.1200E+02
     -8.029  0.0000E+00  0.1200E+02
     -8.019  0.0000E+00  0.1200E+02
     -8.009  0.0000E+00  0.1200E+02
     -7.999  0.0000E+00  0.1200E+02
     -7.989  0.0000E+00  0.1200E+02
     -7.979  0.0000E+00  0.1200E+02
     -7.969  0.0000E+00  0.1200E+02
     -7.959  0.0000E+00  0.1200E+02
     -7.949  0.0000E+00  0.1200E+02
     -7.939  0.0000E+00  0.1200E+02
     -7.929  0.0000E+00  0.1200E+02
     -7.919  0.0000E+00  0.1200E+02
     -7.909  0.0000E+00  0.1200E+02
     -7.899  0.0000E+00  0.1200E+02
     -7.889  0.0000E+00  0.1200E+02
     -7.879  0.0000E+00  0.1200E+02
     -7.869  0.0000E+00  0.1200E+02
     -7.859  0.0000E+00  0.1200E+02
     -7.849  0.0000E+00  0.1200E+02
     -7.839  0.0000E+00  0.1200E+02
     -7.829  0.0000E+00  0.1200E+02
     -7.819  0.0000E+00  0.1200E+02
     -7.809  0.0000E+00  0.1200E+02
     -7.799  0.0000E+00  0.1200E+02
     -7.789  0.0000E+00  0.1200E+02
     -7.779  0.0000E+00  0.1200E+02
     -7.769  0.0000E+00  0.1200E+02
     -7.759  0.0000E+00  0.1200E+02
     -7.749  0.0000E+00  0.1200E+02
     -7.739  0.0000E+00  0.1200E+02
     -7.729  0.0000E+00  0.1200E+02
     -7.719  0.0000E+00  0.1200E+02
     -7.709  0.0000E+00  0.1200E+02
     -7.699  0.0000E+00  0.1200E+02
     -7.689  0.0000E+00  0.1200E+02
     -7.679  0.0000E+00  0.1200E+02
     -7.669  0.0000E+00  0.1200E+02
     -7.659  0.0000E+00  0.1200E+02
     -7.649  0.0000E+00  0.1200E+02
     -7.639  0.0000E+00  0.1200E+02
     -7.629  0.0000E+00  0.1200E+02
     -7.619  0.0000E+00  0.1200E+02
     -7.609  0.0000E+00  0.1200E+02
     -7.599  0.0000E+00  0.1200E+02
     -7.589  0.0000E+00  0.1200E+02
     -7.579  0.0000E+00  0.1200E+02
     -7.569  0.0000E+00  0.1200E+02
     -7.559  0.0000E+00  0.1200E+02
     -7.549  0.0000E+00  0.1200E+02
     -7.539  0.0000E+00  0.1200E+02
     -7.529  0.0000E+00  0.1200E+02
     -7.519  0.0000E+00  0.1200E+02
     -7.509  0.0000E+00  0.1200E+02
     -7.499  0.0000E+00  0.1200E+02
     -7.489  0.0000E+00  0.1200E+02
     -7.479  0.0000E+00  0.1200E+02
     -7.469  0.0000E+00  0.1200E+02
     -7.459  0.0000E+00  0.1200E+02
     -7.449  0.0000E+00  0.1200E+02
     -7.439  0.0000E+00  0.1200E+02
     -7.429  0.0000E+00  0.1200E+02
     -7.419  0.0000E+00  0.1200E+02
     -7.409  0.0000E+00  0.1200E+02
     -7.399  0.0000E+00  0.1200E+02
     -7.389  0.0000E+00  0.1200E+02
     -7.379  0.0000E+00  0.1200E+02
     -7.369  0.0000E+00  0.1200E+02
     -7.359  0.0000E+00  0.1200E+02
     -7.349  0.0000E+00  0.1200E+02
     -7.339  0.0000E+00  0.1200E+02
     -7.329  0.0000E+00  0.1200E+02
     -7.319  0.0000E+00  0.1200E+02
     -7.309  0.0000E+00  0.1200E+02
     -7.299  0.0000E+00  0.1200E+02
     -7.289  0.0000E+00  0.1200E+02
     -7.279  0.0000E+00  0.1200E+02
     -7.269  0.0000E+00  0.1200E+02
     -7.259  0.0000E+00  0.1200E+02
     -7.249  0.0000E+00  0.1200E+02
     -7.239  0.0000E+00  0.1200E+02
     -7.229  0.0000E+00  0.1200E+02
     -7.219  0.0000E+00  0.1200E+02
     -7.209  0.0000E+00  0.1200E+02
     -7.199  0.0000E+00  0.1200E+02
     -7.189  0.0000E+00  0.1200E+02
     -7.179  0.0000E+00  0.1200E+02
     -7.169  0.0000E+00  0.1200E+02
     -7.159  0.0000E+00  0.1200E+02
     -7.149  0.0000E+00  0.1200E+02
     -7.139  0.0000E+00  0.1200E+02
     -7.129  0.0000E+00  0.1200E+02
     -7.119  0.0000E+00  0.1200E+02
     -7.109  0.0000E+00  0.1200E+02
     -7.099  0.0000E+00  0.1200E+02
     -7.089  0.0000E+00  0.1200E+02
     -7.079  0.0000E+00  0.1200E+02
     -7.069  0.0000E+00  0.1200E+02
     -7.059  0.0000E+00  0.1200E+02
     -7.049  0.0000E+00  0.1200E+02
     -7.039  0.0000E+00  0.1200E+02
     -7.029  0.0000E+00  0.1200E+02
     -7.019  0.0000E+00  0.1200E+02
     -7.009  0.0000E+00  0.1200E+02
     -6.998  0.0000E+00  0.1200E+02
     -6.988  0.0000E+00  0.1200E+02
     -6.978  0.0000E+00  0.1200E+02
     -6.968  0.0000E+00  0.1200E+02
     -6.958  0.0000E+00  0.1200E+02
     -6.948  0.0000E+00  0.1200E+02
     -6.938  0.0000E+00  0.1200E+02
     -6.928  0.0000E+00  0.1200E+02
     -6.918  0.0000E+00  0.1200E+02
     -6.908  0.0000E+00  0.1200E+02
     -6.898  0.0000E+00  0.1200E+02
     -6.888  0.0000E+00  0.1200E+02
     -6.878  0.0000E+00  0.1200E+02
     -6.868  0.0000E+00  0.1200E+02
     -6.858  0.0000E+00  0.1200E+02
     -6.848  0.0000E+00  0.1200E+02
     -6.838  0.0000E+00  0.1200E+02
     -6.828  0.0000E+00  0.1200E+02
     -6.818  0.0000E+00  0.1200E+02
     -6.808  0.0000E+00  0.1200E+02
     -6.798  0.0000E+00  0.1200E+02
     -6.788  0.0000E+00  0.1200E+02
     -6.778  0.0000E+00  0.1200E+02
     -6.768  0.0000E+00  0.1200E+02
     -6.758  0.0000E+00  0.1200E+02
     -6.748  0.0000E+00  0.1200E+02
     -6.738  0.0000E+00  0.1200E+02
     -6.728  0.0000E+00  0.1200E+02
     -6.718  0.0000E+00  0.1200E+02
     -6.708  0.0000E+00  0.1200E+02
     -6.698  0.0000E+00  0.1200E+02
     -6.688  0.0000E+00  0.1200E+02
     -6.678  0.0000E+00  0.1200E+02
     -6.668  0.0000E+00  0.1200E+02
     -6.658  0.0000E+00  0.1200E+02
     -6.648  0.0000E+00  0.1200E+02
     -6.638  0.0000E+00  0.1200E+02
     -6.628  0.0000E+00  0.1200E+02
     -6.618  0.0000E+00  0.1200E+02
     -6.608  0.0000E+00  0.1200E+02
     -6.598  0.0000E+00  0.1200E+02
     -6.588  0.0000E+00  0.1200E+02
     -6.578  0.0000E+00  0.1200E+02
     -6.568  0.0000E+00  0.1200E+02
     -6.558  0.0000E+00  0.1200E+02
     -6.548  0.0000E+00  0.1200E+02
     -6.538  0.0000E+00  0.1200E+02
     -6.528  0.0000E+00  0.1200E+02
     -6.518  0.0000E+00  0.1200E+02
     -6.508  0.0000E+00  0.1200E+02
     -6.498  0.0000E+00  0.1200E+02
     -6.488  0.0000E+00  0.1200E+02
     -6.478  0.0000E+00  0.1200E+02
     -6.468  0.0000E+00  0.1200E+02
     -6.458  0.0000E+00  0.1200E+02
     -6.448  0.0000E+00  0.1200E+02
     -6.438  0.0000E+00  0.1200E+02
     -6.428  0.0000E+00  0.1200E+02
     -6.418  0.0000E+00  0.1200E+02
     -6.408  0.0000E+00  0.1200E+02
     -6.398  0.0000E+00  0.1200E+02
     -6.388  0.0000E+00  0.1200E+02
     -6.378  0.0000E+00  0.1200E+02
     -6.368  0.0000E+00  0.1200E+02
     -6.358  0.0000E+00  0.1200E+02
     -6.348  0.0000E+00  0.1200E+02
     -6.338  0.0000E+00  0.1200E+02
     -6.328  0.0000E+00  0.1200E+02
     -6.318  0.0000E+00  0.1200E+02
     -6.308  0.0000E+00  0.1200E+02
     -6.298  0.0000E+00  0.1200E+02
     -6.288  0.0000E+00  0.1200E+02
     -6.278  0.0000E+00  0.1200E+02
     -6.268  0.0000E+00  0.1200E+02
     -6.258  0.0000E+00  0.1200E+02
     -6.248  0.0000E+00  0.1200E+02
     -6.238  0.0000E+00  0.1200E+02
     -6.228  0.0000E+00  0.1200E+02
     -6.218  0.0000E+00  0.1200E+02
     -6.208  0.0000E+00  0.1200E+02
     -6.198  0.0000E+00  0.1200E+02
     -6.188  0.0000E+00  0.1200E+02
     -6.178  0.0000E+00  0.1200E+02
     -6.168  0.0000E+00  0.1200E+02
     -6.158  0.0000E+00  0.1200E+02
     -6.148  0.0000E+00  0.1200E+02
     -6.138  0.0000E+00  0.1200E+02
     -6.128  0.0000E+00  0.1200E+02
     -6.118  0.0000E+00  0.1200E+02
     -6.108  0.0000E+00  0.1200E+02
     -6.098  0.0000E+00  0.1200E+02
     -6.088  0.0000E+00  0.1200E+02
     -6.078  0.0000E+00  0.1200E+02
     -6.068  0.0000E+00  0.1200E+02
     -6.058  0.0000E+00  0.1200E+02
     -6.048  0.0000E+00  0.1200E+02
     -6.038  0.0000E+00  0.1200E+02
     -6.028  0.0000E+00  0.1200E+02
     -6.018  0.0000E+00  0.1200E+02
     -6.008  0.0000E+00  0.1200E+02
     -5.998  0.0000E+00  0.1200E+02
     -5.988  0.0000E+00  0.1200E+02
     -5.978  0.0000E+00  0.1200E+02
     -5.968  0.0000E+00  0.1200E+02
     -5.958  0.0000E+00  0.1200E+02
     -5.948  0.0000E+00  0.1200E+02
     -5.938  0.0000E+00  0.1200E+02
     -5.928  0.0000E+00  0.1200E+02
     -5.918  0.0000E+00  0.1200E+02
     -5.908  0.0000E+00  0.1200E+02
     -5.898  0.0000E+00  0.1200E+02
     -5.888  0.0000E+00  0.1200E+02
     -5.878  0.0000E+00  0.1200E+02
     -5.868  0.0000E+00  0.1200E+02
     -5.858  0.0000E+00  0.1200E+02
     -5.848  0.0000E+00  0.1200E+02
     -5.838  0.0000E+00  0.1200E+02
     -5.828  0.0000E+00  0.1200E+02
     -5.818  0.0000E+00  0.1200E+02
     -5.808  0.0000E+00  0.1200E+02
     -5.798  0.0000E+00  0.1200E+02
     -5.788  0.0000E+00  0.1200E+02
     -5.778  0.0000E+00  0.1200E+02
     -5.768  0.0000E+00  0.1200E+02
     -5.758  0.0000E+00  0.1200E+02
     -5.748  0.0000E+00  0.1200E+02
     -5.738  0.0000E+00  0.1200E+02
     -5.728  0.0000E+00  0.1200E+02
     -5.718  0.0000E+00  0.1200E+02
     -5.708  0.0000E+00  0.1200E+02
     -5.698  0.0000E+00  0.1200E+02
     -5.688  0.0000E+00  0.1200E+02
     -5.678  0.0000E+00  0.1200E+02
     -5.668  0.0000E+00  0.1200E+02
     -5.658  0.0000E+00  0.1200E+02
     -5.648  0.0000E+00  0.1200E+02
     -5.638  0.0000E+00  0.1200E+02
     -5.628  0.0000E+00  0.1200E+02
     -5.618  0.0000E+00  0.1200E+02
     -5.608  0.0000E+00  0.1200E+02
     -5.598  0.0000E+00  0.1200E+02
     -5.588  0.0000E+00  0.1200E+02
     -5.578  0.0000E+00  0.1200E+02
     -5.568  0.0000E+00  0.1200E+02
     -5.558  0.0000E+00  0.1200E+02
     -5.548  0.0000E+00  0.1200E+02
     -5.538  0.0000E+00  0.1200E+02
     -5.528  0.0000E+00  0.1200E+02
     -5.518  0.0000E+00  0.1200E+02
     -5.508  0.0000E+00  0.1200E+02
     -5.498  0.0000E+00  0.1200E+02
     -5.488  0.0000E+00  0.1200E+02
     -5.478  0.0000E+00  0.1200E+02
     -5.468  0.0000E+00  0.1200E+02
     -5.458  0.0000E+00  0.1200E+02
     -5.448  0.0000E+00  0.1200E+02
     -5.438  0.0000E+00  0.1200E+02
     -5.428  0.0000E+00  0.1200E+02
     -5.418  0.0000E+00  0.1200E+02
     -5.408  0.0000E+00  0.1200E+02
     -5.398  0.0000E+00  0.1200E+02
     -5.388  0.0000E+00  0.1200E+02
     -5.378  0.0000E+00  0.1200E+02
     -5.368  0.0000E+00  0.1200E+02
     -5.358  0.0000E+00  0.1200E+02
     -5.348  0.0000E+00  0.1200E+02
     -5.338  0.0000E+00  0.1200E+02
     -5.328  0.0000E+00  0.1200E+02
     -5.318  0.0000E+00  0.1200E+02
     -5.308  0.0000E+00  0.1200E+02
     -5.298  0.0000E+00  0.1200E+02
     -5.288  0.0000E+00  0.1200E+02
     -5.278  0.0000E+00  0.1200E+02
     -5.268  0.0000E+00  0.1200E+02
     -5.258  0.0000E+00  0.1200E+02
     -5.248  0.0000E+00  0.1200E+02
     -5.238  0.0000E+00  0.1200E+02
     -5.228  0.0000E+00  0.1200E+02
     -5.218  0.0000E+00  0.1200E+02
     -5.208  0.0000E+00  0.1200E+02
     -5.198  0.0000E+00  0.1200E+02
     -5.188  0.0000E+00  0.1200E+02
     -5.178  0.1352E+01  0.1200E+02
     -5.168  0.1117E+01  0.1201E+02
     -5.158  0.9092E+00  0.1202E+02
     -5.148  0.9528E+00  0.1203E+02
     -5.138  0.9965E+00  0.1204E+02
     -5.128  0.1040E+01  0.1205E+02
     -5.118  0.1084E+01  0.1206E+02
     -5.108  0.1127E+01  0.1207E+02
     -5.098  0.1115E+01  0.1209E+02
     -5.088  0.1098E+01  0.1210E+02
     -5.078  0.1081E+01  0.1211E+02
     -5.068  0.1088E+01  0.1212E+02
     -5.058  0.1107E+01  0.1213E+02
     -5.048  0.1064E+01  0.1214E+02
     -5.038  0.1202E+01  0.1215E+02
     -5.028  0.1399E+01  0.1216E+02
     -5.018  0.1595E+01  0.1218E+02
     -5.008  0.1792E+01  0.1220E+02
     -4.997  0.1527E+01  0.1221E+02
     -4.987  0.1562E+01  0.1223E+02
     -4.977  0.1597E+01  0.1224E+02
     -4.967  0.1632E+01  0.1226E+02
     -4.957  0.1630E+01  0.1228E+02
     -4.947  0.1664E+01  0.1229E+02
     -4.937  0.1698E+01  0.1231E+02
     -4.927  0.1725E+01  0.1233E+02
     -4.917  0.1729E+01  0.1234E+02
     -4.907  0.1733E+01  0.1236E+02
     -4.897  0.1732E+01  0.1238E+02
     -4.887  0.1731E+01  0.1240E+02
     -4.877  0.1741E+01  0.1241E+02
     -4.867  0.1752E+01  0.1243E+02
     -4.857  0.1775E+01  0.1245E+02
     -4.847  0.1799E+01  0.1247E+02
     -4.837  0.1823E+01  0.1248E+02
     -4.827  0.1847E+01  0.1250E+02
     -4.817  0.2095E+01  0.1252E+02
     -4.807  0.2347E+01  0.1254E+02
     -4.797  0.2606E+01  0.1257E+02
     -4.787  0.2859E+01  0.1260E+02
     -4.777  0.2583E+01  0.1263E+02
     -4.767  0.2639E+01  0.1265E+02
     -4.757  0.2694E+01  0.1268E+02
     -4.747  0.2748E+01  0.1271E+02
     -4.737  0.2802E+01  0.1273E+02
     -4.727  0.2855E+01  0.1276E+02
     -4.717  0.2912E+01  0.1279E+02
     -4.707  0.2968E+01  0.1282E+02
     -4.697  0.3361E+01  0.1285E+02
     -4.687  0.5573E+01  0.1290E+02
     -4.677  0.3944E+01  0.1294E+02
     -4.667  0.4147E+01  0.1298E+02
     -4.657  0.3845E+01  0.1302E+02
     -4.647  0.3319E+01  0.1305E+02
     -4.637  0.2869E+01  0.1309E+02
     -4.627  0.2944E+01  0.1311E+02
     -4.617  0.3051E+01  0.1314E+02
     -4.607  0.3160E+01  0.1318E+02
     -4.597  0.3259E+01  0.1321E+02
     -4.587  0.3354E+01  0.1324E+02
     -4.577  0.3449E+01  0.1327E+02
     -4.567  0.3544E+01  0.1331E+02
     -4.557  0.3639E+01  0.1335E+02
     -4.547  0.4254E+01  0.1339E+02
     -4.537  0.4842E+01  0.1343E+02
     -4.527  0.5505E+01  0.1348E+02
     -4.517  0.3334E+01  0.1352E+02
     -4.507  0.3513E+01  0.1356E+02
     -4.497  0.3692E+01  0.1359E+02
     -4.487  0.3871E+01  0.1363E+02
     -4.477  0.4047E+01  0.1367E+02
     -4.467  0.4422E+01  0.1371E+02
     -4.457  0.6550E+01  0.1378E+02
     -4.447  0.6412E+01  0.1384E+02
     -4.437  0.6435E+01  0.1390E+02
     -4.427  0.6761E+01  0.1397E+02
     -4.417  0.5571E+01  0.1403E+02
     -4.407  0.4778E+01  0.1408E+02
     -4.397  0.4334E+01  0.1413E+02
     -4.387  0.3890E+01  0.1417E+02
     -4.377  0.3445E+01  0.1421E+02
     -4.367  0.4766E+01  0.1424E+02
     -4.357  0.2808E+01  0.1430E+02
     -4.347  0.1449E+01  0.1431E+02
     -4.337  0.1450E+01  0.1432E+02
     -4.327  0.1450E+01  0.1434E+02
     -4.317  0.1451E+01  0.1435E+02
     -4.307  0.1452E+01  0.1437E+02
     -4.297  0.1452E+01  0.1438E+02
     -4.287  0.1692E+01  0.1440E+02
     -4.277  0.1713E+01  0.1442E+02
     -4.267  0.1734E+01  0.1443E+02
     -4.257  0.1755E+01  0.1445E+02
     -4.247  0.1775E+01  0.1447E+02
     -4.237  0.1796E+01  0.1449E+02
     -4.227  0.1941E+01  0.1450E+02
     -4.217  0.2278E+01  0.1453E+02
     -4.207  0.2616E+01  0.1455E+02
     -4.197  0.2954E+01  0.1458E+02
     -4.187  0.2326E+01  0.1461E+02
     -4.177  0.1852E+01  0.1463E+02
     -4.167  0.1643E+01  0.1464E+02
     -4.157  0.1597E+01  0.1466E+02
     -4.147  0.1552E+01  0.1468E+02
     -4.137  0.1506E+01  0.1469E+02
     -4.127  0.1461E+01  0.1471E+02
     -4.117  0.1415E+01  0.1472E+02
     -4.107  0.1370E+01  0.1473E+02
     -4.097  0.1324E+01  0.1475E+02
     -4.087  0.1279E+01  0.1476E+02
     -4.077  0.1239E+01  0.1477E+02
     -4.067  0.1203E+01  0.1479E+02
     -4.057  0.1167E+01  0.1480E+02
     -4.047  0.1130E+01  0.1481E+02
     -4.037  0.1094E+01  0.1482E+02
     -4.027  0.1058E+01  0.1483E+02
     -4.017  0.1021E+01  0.1484E+02
     -4.007  0.9994E+00  0.1485E+02
     -3.997  0.9855E+00  0.1486E+02
     -3.987  0.9715E+00  0.1487E+02
     -3.977  0.9576E+00  0.1488E+02
     -3.967  0.9437E+00  0.1489E+02
     -3.957  0.9298E+00  0.1490E+02
     -3.947  0.9169E+00  0.1491E+02
     -3.937  0.9047E+00  0.1492E+02
     -3.927  0.8926E+00  0.1493E+02
     -3.917  0.8804E+00  0.1494E+02
     -3.907  0.8682E+00  0.1494E+02
     -3.897  0.8557E+00  0.1495E+02
     -3.887  0.8412E+00  0.1496E+02
     -3.877  0.8276E+00  0.1497E+02
     -3.867  0.8153E+00  0.1498E+02
     -3.857  0.7948E+00  0.1499E+02
     -3.847  0.7878E+00  0.1499E+02
     -3.837  0.7808E+00  0.1500E+02
     -3.827  0.7738E+00  0.1501E+02
     -3.817  0.7668E+00  0.1502E+02
     -3.807  0.7598E+00  0.1503E+02
     -3.797  0.7528E+00  0.1503E+02
     -3.787  0.7457E+00  0.1504E+02
     -3.777  0.7387E+00  0.1505E+02
     -3.767  0.7317E+00  0.1506E+02
     -3.757  0.7256E+00  0.1506E+02
     -3.747  0.7207E+00  0.1507E+02
     -3.737  0.7158E+00  0.1508E+02
     -3.727  0.7109E+00  0.1508E+02
     -3.717  0.7060E+00  0.1509E+02
     -3.707  0.7011E+00  0.1510E+02
     -3.697  0.6962E+00  0.1511E+02
     -3.687  0.6913E+00  0.1511E+02
     -3.677  0.6864E+00  0.1512E+02
     -3.667  0.6815E+00  0.1513E+02
     -3.657  0.6766E+00  0.1513E+02
     -3.647  0.6716E+00  0.1514E+02
     -3.637  0.6671E+00  0.1515E+02
     -3.627  0.6631E+00  0.1515E+02
     -3.617  0.6591E+00  0.1516E+02
     -3.607  0.6550E+00  0.1517E+02
     -3.597  0.6520E+00  0.1517E+02
     -3.587  0.6506E+00  0.1518E+02
     -3.577  0.6492E+00  0.1519E+02
     -3.567  0.6478E+00  0.1519E+02
     -3.557  0.6464E+00  0.1520E+02
     -3.547  0.6450E+00  0.1521E+02
     -3.537  0.6436E+00  0.1521E+02
     -3.527  0.6473E+00  0.1522E+02
     -3.517  0.6592E+00  0.1522E+02
     -3.507  0.6712E+00  0.1523E+02
     -3.497  0.6832E+00  0.1524E+02
     -3.487  0.3913E+01  0.1526E+02
     -3.477  0.2964E+01  0.1529E+02
     -3.467  0.3365E+01  0.1532E+02
     -3.457  0.3584E+01  0.1536E+02
     -3.447  0.3295E+01  0.1539E+02
     -3.437  0.3379E+01  0.1543E+02
     -3.427  0.3525E+01  0.1546E+02
     -3.417  0.3671E+01  0.1550E+02
     -3.407  0.3822E+01  0.1553E+02
     -3.397  0.4070E+01  0.1557E+02
     -3.387  0.4234E+01  0.1561E+02
     -3.377  0.4429E+01  0.1566E+02
     -3.367  0.4635E+01  0.1570E+02
     -3.357  0.4775E+01  0.1575E+02
     -3.347  0.4915E+01  0.1580E+02
     -3.337  0.5846E+01  0.1585E+02
     -3.327  0.8276E+01  0.1593E+02
     -3.317  0.6402E+01  0.1600E+02
     -3.307  0.6202E+01  0.1606E+02
     -3.297  0.6080E+01  0.1613E+02
     -3.287  0.5957E+01  0.1619E+02
     -3.277  0.6803E+01  0.1625E+02
     -3.267  0.6387E+01  0.1631E+02
     -3.257  0.6628E+01  0.1638E+02
     -3.247  0.6109E+01  0.1644E+02
     -3.237  0.5543E+01  0.1650E+02
     -3.227  0.4986E+01  0.1655E+02
     -3.217  0.4335E+01  0.1660E+02
     -3.207  0.4242E+01  0.1664E+02
     -3.197  0.4560E+01  0.1669E+02
     -3.187  0.4496E+01  0.1673E+02
     -3.177  0.4328E+01  0.1678E+02
     -3.167  0.4161E+01  0.1682E+02
     -3.157  0.3993E+01  0.1686E+02
     -3.147  0.3826E+01  0.1690E+02
     -3.137  0.3672E+01  0.1694E+02
     -3.127  0.3586E+01  0.1697E+02
     -3.117  0.3236E+01  0.1700E+02
     -3.107  0.3162E+01  0.1704E+02
     -3.097  0.3087E+01  0.1707E+02
     -3.087  0.2792E+01  0.1710E+02
     -3.077  0.2285E+01  0.1712E+02
     -3.067  0.1780E+01  0.1714E+02
     -3.057  0.1275E+01  0.1716E+02
     -3.047  0.1069E+01  0.1717E+02
     -3.037  0.1001E+01  0.1718E+02
     -3.027  0.9943E+00  0.1719E+02
     -3.017  0.9878E+00  0.1720E+02
     -3.007  0.9813E+00  0.1721E+02
     -2.996  0.9748E+00  0.1722E+02
     -2.986  0.1007E+01  0.1723E+02
     -2.976  0.1059E+01  0.1724E+02
     -2.966  0.1111E+01  0.1725E+02
     -2.956  0.1163E+01  0.1726E+02
     -2.946  0.1215E+01  0.1727E+02
     -2.936  0.1266E+01  0.1729E+02
     -2.926  0.1318E+01  0.1730E+02
     -2.916  0.1370E+01  0.1731E+02
     -2.906  0.1422E+01  0.1733E+02
     -2.896  0.1252E+01  0.1734E+02
     -2.886  0.1236E+01  0.1735E+02
     -2.876  0.1220E+01  0.1737E+02
     -2.866  0.1204E+01  0.1738E+02
     -2.856  0.1188E+01  0.1739E+02
     -2.846  0.1172E+01  0.1740E+02
     -2.836  0.1157E+01  0.1741E+02
     -2.826  0.1139E+01  0.1743E+02
     -2.816  0.1119E+01  0.1744E+02
     -2.806  0.1099E+01  0.1745E+02
     -2.796  0.1079E+01  0.1746E+02
     -2.786  0.1077E+01  0.1747E+02
     -2.776  0.1085E+01  0.1748E+02
     -2.766  0.1095E+01  0.1749E+02
     -2.756  0.1106E+01  0.1750E+02
     -2.746  0.1117E+01  0.1751E+02
     -2.736  0.3221E+01  0.1752E+02
     -2.726  0.3098E+01  0.1756E+02
     -2.716  0.3208E+01  0.1759E+02
     -2.706  0.3504E+01  0.1763E+02
     -2.696  0.3703E+01  0.1766E+02
     -2.686  0.3700E+01  0.1770E+02
     -2.676  0.4059E+01  0.1774E+02
     -2.666  0.4501E+01  0.1778E+02
     -2.656  0.4219E+01  0.1782E+02
     -2.646  0.4209E+01  0.1787E+02
     -2.636  0.4461E+01  0.1791E+02
     -2.626  0.5198E+01  0.1796E+02
     -2.616  0.5935E+01  0.1801E+02
     -2.606  0.6671E+01  0.1808E+02
     -2.596  0.1785E+02  0.1823E+02
     -2.586  0.9389E+01  0.1836E+02
     -2.576  0.6543E+01  0.1843E+02
     -2.566  0.6099E+01  0.1850E+02
     -2.556  0.5655E+01  0.1856E+02
     -2.546  0.6140E+01  0.1861E+02
     -2.536  0.6743E+01  0.1869E+02
     -2.526  0.2637E+01  0.1873E+02
     -2.516  0.2445E+01  0.1876E+02
     -2.506  0.2392E+01  0.1878E+02
     -2.496  0.2338E+01  0.1880E+02
     -2.486  0.2727E+01  0.1883E+02
     -2.476  0.3526E+01  0.1886E+02
     -2.466  0.3788E+01  0.1890E+02
     -2.456  0.3785E+01  0.1893E+02
     -2.446  0.3783E+01  0.1897E+02
     -2.436  0.3744E+01  0.1901E+02
     -2.426  0.2950E+01  0.1904E+02
     -2.416  0.2845E+01  0.1907E+02
     -2.406  0.2802E+01  0.1910E+02
     -2.396  0.2759E+01  0.1913E+02
     -2.386  0.2716E+01  0.1916E+02
     -2.376  0.2672E+01  0.1918E+02
     -2.366  0.2629E+01  0.1921E+02
     -2.356  0.2753E+01  0.1924E+02
     -2.346  0.2603E+01  0.1926E+02
     -2.336  0.2451E+01  0.1929E+02
     -2.326  0.2302E+01  0.1931E+02
     -2.316  0.2154E+01  0.1933E+02
     -2.306  0.2005E+01  0.1936E+02
     -2.296  0.1870E+01  0.1937E+02
     -2.286  0.1849E+01  0.1939E+02
     -2.276  0.1733E+01  0.1941E+02
     -2.266  0.1718E+01  0.1943E+02
     -2.256  0.1704E+01  0.1945E+02
     -2.246  0.1692E+01  0.1946E+02
     -2.236  0.1680E+01  0.1948E+02
     -2.226  0.1667E+01  0.1950E+02
     -2.216  0.1655E+01  0.1951E+02
     -2.206  0.1643E+01  0.1953E+02
     -2.196  0.1631E+01  0.1955E+02
     -2.186  0.1618E+01  0.1956E+02
     -2.176  0.1606E+01  0.1958E+02
     -2.166  0.1595E+01  0.1959E+02
     -2.156  0.1586E+01  0.1961E+02
     -2.146  0.1580E+01  0.1963E+02
     -2.136  0.1574E+01  0.1964E+02
     -2.126  0.1728E+01  0.1966E+02
     -2.116  0.1683E+01  0.1967E+02
     -2.106  0.1637E+01  0.1969E+02
     -2.096  0.1591E+01  0.1971E+02
     -2.086  0.1499E+01  0.1972E+02
     -2.076  0.1457E+01  0.1974E+02
     -2.066  0.1415E+01  0.1975E+02
     -2.056  0.1373E+01  0.1977E+02
     -2.046  0.1379E+01  0.1978E+02
     -2.036  0.1591E+01  0.1979E+02
     -2.026  0.1812E+01  0.1981E+02
     -2.016  0.2032E+01  0.1983E+02
     -2.006  0.1727E+01  0.1985E+02
     -1.996  0.2083E+01  0.1987E+02
     -1.986  0.2098E+01  0.1989E+02
     -1.976  0.2130E+01  0.1991E+02
     -1.966  0.2145E+01  0.1993E+02
     -1.956  0.2160E+01  0.1995E+02
     -1.946  0.2176E+01  0.1998E+02
     -1.936  0.1880E+01  0.2000E+02
     -1.926  0.1540E+01  0.2001E+02
     -1.916  0.1200E+01  0.2003E+02
     -1.906  0.9991E+00  0.2004E+02
     -1.896  0.9984E+00  0.2005E+02
     -1.886  0.9977E+00  0.2006E+02
     -1.876  0.9969E+00  0.2007E+02
     -1.866  0.9962E+00  0.2008E+02
     -1.856  0.9813E+00  0.2009E+02
     -1.846  0.9794E+00  0.2010E+02
     -1.836  0.9776E+00  0.2011E+02
     -1.826  0.9757E+00  0.2012E+02
     -1.816  0.9739E+00  0.2013E+02
     -1.806  0.1767E+01  0.2014E+02
     -1.796  0.2258E+01  0.2016E+02
     -1.786  0.2733E+01  0.2019E+02
     -1.776  0.2543E+01  0.2021E+02
     -1.766  0.2353E+01  0.2024E+02
     -1.756  0.2163E+01  0.2026E+02
     -1.746  0.1973E+01  0.2028E+02