    3    3    1    1
  0.3511650E+02  0.3183906E-09  0.3183906E-09  0.1200000E-08  0.5000000E-15
  1.000000000000000E-004
  CAR 
 MoS2                                    
     26    210     64
 
  0.0000000E+00  0.0000000E+00  0.0000000E+00  0.4761905E-02
      1        -60.300190   1.000000
      2        -34.442891   1.000000
      3        -34.238711   1.000000
      4        -34.238707   1.000000
      5        -13.511998   1.000000
      6        -12.206422   1.000000
      7         -5.044316   1.000000
      8         -2.048717   1.000000
      9         -2.048717   1.000000
     10         -1.199841   1.000000
     11         -0.942510   1.000000
     12         -0.942472   1.000000
     13          0.563692   1.000000
     14          3.323316   0.000000
     15          3.323337   0.000000
     16          3.573041   0.000000
     17          3.573061   0.000000
     18          5.709102   0.000000
     19          6.850354   0.000000
     20          7.053311   0.000000
     21          9.542724   0.000000
     22          9.626056   0.000000
     23         11.451223   0.000000
     24         11.451256   0.000000
     25         13.362571   0.000000
     26         13.525718   0.000000
     27         13.525766   0.000000
     28         13.526381   0.000000
     29         15.834191   0.000000
     30         16.734572   0.000000
     31         16.887443   0.000000
     32         16.887457   0.000000
     33         17.127779   0.000000
     34         17.127807   0.000000
     35         19.552768   0.000000
     36         20.308318   0.000000
     37         22.399892   0.000000
     38         22.677546   0.000000
     39         23.296062   0.000000
     40         23.296093   0.000000
     41         25.135932   0.000000
     42         25.135952   0.000000
     43         25.208789   0.000000
     44         25.211783   0.000000
     45         25.212060   0.000000
     46         25.676036   0.000000
     47         25.711311   0.000000
     48         26.195626   0.000000
     49         26.195897   0.000000
     50         26.293045   0.000000
     51         26.293097   0.000000
     52         27.241477   0.000000
     53         27.887091   0.000000
     54         28.234601   0.000000
     55         28.235073   0.000000
     56         28.998451   0.000000
     57         29.624163   0.000000
     58         29.624355   0.000000
     59         30.122842   0.000000
     60         30.122981   0.000000
     61         30.701166   0.000000
     62         30.960155   0.000000
     63         32.327882   0.000000
     64         32.358432   0.000000
 
  0.1149425E-01  0.1149425E-01  0.0000000E+00  0.4761905E-02
      1        -60.300045   1.000000
      2        -34.442631   1.000000
      3        -34.240348   1.000000
      4        -34.239111   1.000000
      5        -13.506104   1.000000
      6        -12.204012   1.000000
      7         -5.037439   1.000000
      8         -2.062623   1.000000
      9         -2.042552   1.000000
     10         -1.260589   1.000000
     11         -0.952455   1.000000
     12         -0.890117   1.000000
     13          0.561139   1.000000
     14          3.313460   0.000000
     15          3.334319   0.000000
     16          3.554237   0.000000
     17          3.566026   0.000000
     18          5.720898   0.000000
     19          6.877955   0.000000
     20          7.060682   0.000000
     21          9.549126   0.000000
     22          9.655265   0.000000
     23         11.431693   0.000000
     24         11.470493   0.000000
     25         13.366542   0.000000
     26         13.441207   0.000000
     27         13.527098   0.000000
     28         13.556302   0.000000
     29         15.833375   0.000000
     30         16.772580   0.000000
     31         16.867384   0.000000
     32         16.903644   0.000000
     33         17.102967   0.000000
     34         17.126098   0.000000
     35         19.574428   0.000000
     36         20.377876   0.000000
     37         22.407242   0.000000
     38         22.615206   0.000000
     39         23.314681   0.000000
     40         23.331267   0.000000
     41         24.680780   0.000000
     42         24.775408   0.000000
     43         25.053833   0.000000
     44         25.067056   0.000000
     45         25.549958   0.000000
     46         25.592315   0.000000
     47         25.967508   0.000000
     48         26.154347   0.000000
     49         26.346002   0.000000
     50         26.411585   0.000000
     51         26.489463   0.000000
     52         27.477866   0.000000
     53         27.758137   0.000000
     54         28.104253   0.000000
     55         28.205997   0.000000
     56         28.978676   0.000000
     57         29.735982   0.000000
     58         29.806450   0.000000
     59         29.839156   0.000000
     60         30.097560   0.000000
     61         30.983094   0.000000
     62         30.990923   0.000000
     63         32.266562   0.000000
     64         32.317942   0.000000
 
  0.2298851E-01  0.2298851E-01  0.0000000E+00  0.4761905E-02
      1        -60.299612   1.000000
      2        -34.441736   1.000000
      3        -34.244772   1.000000
      4        -34.240193   1.000000
      5        -13.488448   1.000000
      6        -12.196779   1.000000
      7         -5.016933   1.000000
      8         -2.103572   1.000000
      9         -2.024087   1.000000
     10         -1.381715   1.000000
     11         -0.982548   1.000000
     12         -0.793755   1.000000
     13          0.553206   1.000000
     14          3.285472   0.000000
     15          3.367069   0.000000
     16          3.500543   0.000000
     17          3.545128   0.000000
     18          5.754890   0.000000
     19          6.959748   0.000000
     20          7.082701   0.000000
     21          9.567980   0.000000
     22          9.741055   0.000000
     23         11.376420   0.000000
     24         11.527609   0.000000
     25         13.271669   0.000000
     26         13.375295   0.000000
     27         13.526931   0.000000
     28         13.582191   0.000000
     29         15.829762   0.000000
     30         16.680954   0.000000
     31         16.898928   0.000000
     32         17.027841   0.000000
     33         17.064190   0.000000
     34         17.125492   0.000000
     35         19.639433   0.000000
     36         20.573491   0.000000
     37         22.428875   0.000000
     38         22.465300   0.000000
     39         23.353988   0.000000
     40         23.388625   0.000000
     41         24.135121   0.000000
     42         24.224168   0.000000
     43         24.702132   0.000000
     44         24.795597   0.000000
     45         25.502756   0.000000
     46         25.761290   0.000000
     47         25.978250   0.000000
     48         26.112458   0.000000
     49         26.720510   0.000000
     50         26.859901   0.000000
     51         26.973793   0.000000
     52         27.360358   0.000000
     53         27.790884   0.000000
     54         27.953251   0.000000
     55         28.338099   0.000000
     56         28.984961   0.000000
     57         29.316493   0.000000
     58         29.903780   0.000000
     59         30.018411   0.000000
     60         30.308265   0.000000
     61         31.064223   0.000000
     62         31.382138   0.000000
     63         32.095515   0.000000
     64         32.218922   0.000000
 
  0.3448276E-01  0.3448276E-01  0.0000000E+00  0.4761905E-02
      1        -60.298898   1.000000
      2        -34.440398   1.000000
      3        -34.252031   1.000000
      4        -34.241886   1.000000
      5        -13.459189   1.000000
      6        -12.184796   1.000000
      7         -4.983261   1.000000
      8         -2.169598   1.000000
      9         -1.993599   1.000000
     10         -1.519821   1.000000
     11         -1.033199   1.000000
     12         -0.696332   1.000000
     13          0.538910   1.000000
     14          3.243635   0.000000
     15          3.418833   0.000000
     16          3.420735   0.000000
     17          3.510947   0.000000
     18          5.807783   0.000000
     19          7.092643   0.000000
     20          7.119075   0.000000
     21          9.598284   0.000000
     22          9.877744   0.000000
     23         11.293185   0.000000
     24         11.620295   0.000000
     25         13.036256   0.000000
     26         13.381035   0.000000
     27         13.519949   0.000000
     28         13.622301   0.000000
     29         15.819957   0.000000
     30         16.499456   0.000000
     31         16.901151   0.000000
     32         16.931566   0.000000
     33         17.135659   0.000000
     34         17.375589   0.000000
     35         19.747314   0.000000
     36         20.864951   0.000000
     37         22.271800   0.000000
     38         22.462209   0.000000
     39         23.261218   0.000000
     40         23.375517   0.000000
     41         23.665322   0.000000
     42         23.769132   0.000000
     43         24.345588   0.000000
     44         24.397015   0.000000
     45         25.505035   0.000000
     46         25.847661   0.000000
     47         25.906598   0.000000
     48         26.154836   0.000000
     49         26.791116   0.000000
     50         27.162607   0.000000
     51         27.223744   0.000000
     52         27.414555   0.000000
     53         27.730959   0.000000
     54         28.486012   0.000000
     55         28.618937   0.000000
     56         28.855621   0.000000
     57         29.045707   0.000000
     58         29.879174   0.000000
     59         29.987932   0.000000
     60         30.802555   0.000000
     61         31.238500   0.000000
     62         31.653874   0.000000
     63         31.775254   0.000000
     64         31.968670   0.000000
 
  0.4597701E-01  0.4597701E-01  0.0000000E+00  0.4761905E-02
      1        -60.297913   1.000000
      2        -34.438400   1.000000
      3        -34.262046   1.000000
      4        -34.244222   1.000000
      5        -13.418585   1.000000
      6        -12.168166   1.000000
      7         -4.937174   1.000000
      8         -2.257619   1.000000
      9         -1.951642   1.000000
     10         -1.663608   1.000000
     11         -1.104921   1.000000
     12         -0.608074   1.000000
     13          0.516732   1.000000
     14          3.194108   0.000000
     15          3.318146   0.000000
     16          3.464441   0.000000
     17          3.493906   0.000000
     18          5.876151   0.000000
     19          7.169390   0.000000
     20          7.271645   0.000000
     21          9.638724   0.000000
     22         10.056569   0.000000
     23         11.191685   0.000000
     24         11.744087   0.000000
     25         12.765048   0.000000
     26         13.376025   0.000000
     27         13.503609   0.000000
     28         13.679257   0.000000
     29         15.798721   0.000000
     30         16.294716   0.000000
     31         16.724074   0.000000
     32         16.972817   0.000000
     33         17.168976   0.000000
     34         17.763202   0.000000
     35         19.895616   0.000000
     36         21.219556   0.000000
     37         22.046778   0.000000
     38         22.496618   0.000000
     39         22.801025   0.000000
     40         23.129565   0.000000
     41         23.232283   0.000000
     42         23.805912   0.000000
     43         23.936711   0.000000
     44         24.134780   0.000000
     45         25.487896   0.000000
     46         25.904389   0.000000
     47         25.918996   0.000000
     48         26.178468   0.000000
     49         26.282301   0.000000
     50         26.869845   0.000000
     51         27.507305   0.000000
     52         27.790692   0.000000
     53         28.283389   0.000000
     54         28.604805   0.000000
     55         28.971698   0.000000
     56         29.041576   0.000000
     57         29.157672   0.000000
     58         29.683134   0.000000
     59         30.018651   0.000000
     60         31.007355   0.000000
     61         31.423013   0.000000
     62         31.725003   0.000000
     63         31.761911   0.000000
     64         31.926120   0.000000
 
  0.5747126E-01  0.5747126E-01  0.0000000E+00  0.4761905E-02
      1        -60.296673   1.000000
      2        -34.435896   1.000000
      3        -34.274496   1.000000
      4        -34.247303   1.000000
      5        -13.367013   1.000000
      6        -12.147037   1.000000
      7         -4.879812   1.000000
      8         -2.363757   1.000000
      9         -1.898950   1.000000
     10         -1.808455   1.000000
     11         -1.198037   1.000000
     12         -0.532295   1.000000
     13          0.484751   1.000000
     14          3.143554   0.000000
     15          3.207695   0.000000
     16          3.407233   0.000000
     17          3.584624   0.000000
     18          5.957565   0.000000
     19          7.233129   0.000000
     20          7.490316   0.000000
     21          9.687891   0.000000
     22         10.265694   0.000000
     23         11.080594   0.000000
     24         11.891890   0.000000
     25         12.482223   0.000000
     26         13.356865   0.000000
     27         13.474715   0.000000
     28         13.753311   0.000000
     29         15.758440   0.000000
     30         16.096465   0.000000
     31         16.503695   0.000000
     32         17.022965   0.000000
     33         17.235728   0.000000
     34         18.198964   0.000000
     35         20.076211   0.000000
     36         21.604811   0.000000
     37         21.782512   0.000000
     38         22.257651   0.000000
     39         22.424599   0.000000
     40         22.726064   0.000000
     41         22.982344   0.000000
     42         23.474268   0.000000
     43         23.969639   0.000000
     44         24.067528   0.000000
     45         25.372757   0.000000
     46         25.756885   0.000000
     47         25.935189   0.000000
     48         26.017871   0.000000
     49         26.185687   0.000000
     50         26.558837   0.000000
     51         27.609072   0.000000
     52         27.809723   0.000000
     53         28.831601   0.000000
     54         28.970709   0.000000
     55         29.239587   0.000000
     56         29.380552   0.000000
     57         29.390042   0.000000
     58         29.618801   0.000000
     59         30.145667   0.000000
     60         30.780815   0.000000
     61         31.401942   0.000000
     62         31.774046   0.000000
     63         32.009090   0.000000
     64         32.292279   0.000000
 
  0.6896552E-01  0.6896552E-01  0.0000000E+00  0.4761905E-02
      1        -60.295198   1.000000
      2        -34.432935   1.000000
      3        -34.289093   1.000000
      4        -34.250979   1.000000
      5        -13.304918   1.000000
      6        -12.121599   1.000000
      7         -4.812694   1.000000
      8         -2.483476   1.000000
      9         -1.951563   1.000000
     10         -1.836650   1.000000
     11         -1.312256   1.000000
     12         -0.470243   1.000000
     13          0.440949   1.000000
     14          3.095715   0.000000
     15          3.098126   0.000000
     16          3.341715   0.000000
     17          3.690443   0.000000
     18          6.050725   0.000000
     19          7.309711   0.000000
     20          7.741416   0.000000
     21          9.744597   0.000000
     22         10.489761   0.000000
     23         10.966908   0.000000
     24         12.051967   0.000000
     25         12.206969   0.000000
     26         13.329021   0.000000
     27         13.429515   0.000000
     28         13.844777   0.000000
     29         15.683196   0.000000
     30         15.926065   0.000000
     31         16.260377   0.000000
     32         17.080566   0.000000
     33         17.341391   0.000000
     34         18.665172   0.000000
     35         20.264577   0.000000
     36         21.466833   0.000000
     37         21.735143   0.000000
     38         21.957277   0.000000
     39         22.015447   0.000000
     40         22.675542   0.000000
     41         22.736901   0.000000
     42         23.090796   0.000000
     43         24.049116   0.000000
     44         24.167737   0.000000
     45         25.050329   0.000000
     46         25.341792   0.000000
     47         25.955526   0.000000
     48         26.108681   0.000000
     49         26.171909   0.000000
     50         26.396996   0.000000
     51         27.286443   0.000000
     52         28.066298   0.000000
     53         29.073925   0.000000
     54         29.087591   0.000000
     55         29.377693   0.000000
     56         29.621985   0.000000
     57         29.861579   0.000000
     58         30.039314   0.000000
     59         30.347321   0.000000
     60         30.608058   0.000000
     61         31.477916   0.000000
     62         31.795725   0.000000
     63         32.141859   0.000000
     64         32.553224   0.000000
 
  0.8045977E-01  0.8045977E-01  0.0000000E+00  0.4761905E-02
      1        -60.293509   1.000000
      2        -34.429629   1.000000
      3        -34.305690   1.000000
      4        -34.255500   1.000000
      5        -13.232881   1.000000
      6        -12.092098   1.000000
      7         -4.737856   1.000000
      8         -2.612048   1.000000
      9         -2.090963   1.000000
     10         -1.766376   1.000000
     11         -1.446560   1.000000
     12         -0.422294   1.000000
     13          0.383713   1.000000
     14          2.988525   0.000000
     15          3.062666   0.000000
     16          3.271190   0.000000
     17          3.808393   0.000000
     18          6.155099   0.000000
     19          7.398456   0.000000
     20          8.017173   0.000000
     21          9.807997   0.000000
     22         10.706098   0.000000
     23         10.854759   0.000000
     24         11.959693   0.000000
     25         12.204232   0.000000
     26         13.310632   0.000000
     27         13.365403   0.000000
     28         13.954026   0.000000
     29         15.534349   0.000000
     30         15.798109   0.000000
     31         16.041222   0.000000
     32         17.143109   0.000000
     33         17.486697   0.000000
     34         19.147729   0.000000
     35         20.376532   0.000000
     36         21.057625   0.000000
     37         21.369532   0.000000
     38         21.539093   0.000000
     39         22.054388   0.000000
     40         22.546274   0.000000
     41         22.742746   0.000000
     42         22.974628   0.000000
     43         24.016176   0.000000
     44         24.346250   0.000000
     45         24.609729   0.000000
     46         25.005150   0.000000
     47         25.847157   0.000000
     48         26.191657   0.000000
     49         26.223336   0.000000
     50         26.362284   0.000000
     51         27.067553   0.000000
     52         28.258179   0.000000
     53         28.783756   0.000000
     54         29.086401   0.000000
     55         29.429942   0.000000
     56         30.150146   0.000000
     57         30.236120   0.000000
     58         30.387169   0.000000
     59         30.549974   0.000000
     60         31.029820   0.000000
     61         31.597123   0.000000
     62         31.788011   0.000000
     63         32.383676   0.000000
     64         32.668894   0.000000
 
  0.9195402E-01  0.9195402E-01  0.0000000E+00  0.4761905E-02
      1        -60.291630   1.000000
      2        -34.425888   1.000000
      3        -34.323993   1.000000
      4        -34.260606   1.000000
      5        -13.151557   1.000000
      6        -12.058793   1.000000
      7         -4.657950   1.000000
      8         -2.744172   1.000000
      9         -2.225235   1.000000
     10         -1.690398   1.000000
     11         -1.598799   1.000000
     12         -0.388292   1.000000
     13          0.312500   1.000000
     14          2.890147   0.000000
     15          3.040574   0.000000
     16          3.200198   0.000000
     17          3.935290   0.000000
     18          6.270543   0.000000
     19          7.498584   0.000000
     20          8.309357   0.000000
     21          9.877584   0.000000
     22         10.746621   0.000000
     23         10.873745   0.000000
     24         11.775726   0.000000
     25         12.318238   0.000000
     26         13.283610   0.000000
     27         13.333544   0.000000
     28         14.081396   0.000000
     29         15.272698   0.000000
     30         15.720796   0.000000
     31         15.896817   0.000000
     32         17.208229   0.000000
     33         17.668951   0.000000
     34         19.631096   0.000000
     35         20.238042   0.000000
     36         20.559433   0.000000
     37         21.101437   0.000000
     38         21.343677   0.000000
     39         21.729750   0.000000
     40         22.409588   0.000000
     41         22.989690   0.000000
     42         23.127945   0.000000
     43         23.892580   0.000000
     44         24.069090   0.000000
     45         24.590247   0.000000
     46         24.776964   0.000000
     47         25.567255   0.000000
     48         26.266754   0.000000
     49         26.344515   0.000000
     50         26.399060   0.000000
     51         26.994684   0.000000
     52         28.364403   0.000000
     53         28.494398   0.000000
     54         28.900837   0.000000
     55         29.463533   0.000000
     56         30.224376   0.000000
     57         30.609252   0.000000
     58         30.819707   0.000000
     59         31.131167   0.000000
     60         31.464950   0.000000
     61         31.711642   0.000000
     62         31.845311   0.000000
     63         32.472143   0.000000
     64         32.693632   0.000000
 
  0.1034483E+00  0.1034483E+00  0.0000000E+00  0.4761905E-02
      1        -60.289593   1.000000
      2        -34.421770   1.000000
      3        -34.343457   1.000000
      4        -34.266367   1.000000
      5        -13.061709   1.000000
      6        -12.021988   1.000000
      7         -4.576495   1.000000
      8         -2.874302   1.000000
      9         -2.353734   1.000000
     10         -1.765629   1.000000
     11         -1.611790   1.000000
     12         -0.367869   1.000000
     13          0.228296   1.000000
     14          2.801886   0.000000
     15          3.033630   0.000000
     16          3.134421   0.000000
     17          4.067659   0.000000
     18          6.397047   0.000000
     19          7.609177   0.000000
     20          8.608595   0.000000
     21          9.953080   0.000000
     22         10.643447   0.000000
     23         10.924590   0.000000
     24         11.715292   0.000000
     25         12.366837   0.000000
     26         13.190473   0.000000
     27         13.427938   0.000000
     28         14.226935   0.000000
     29         14.927391   0.000000
     30         15.693722   0.000000
     31         15.812073   0.000000
     32         17.273518   0.000000
     33         17.883801   0.000000
     34         19.878950   0.000000
     35         20.054672   0.000000
     36         20.070976   0.000000
     37         20.737877   0.000000
     38         21.309197   0.000000
     39         21.547417   0.000000
     40         22.315737   0.000000
     41         23.136988   0.000000
     42         23.500493   0.000000
     43         23.505806   0.000000
     44         23.777460   0.000000
     45         24.526375   0.000000
     46         24.896142   0.000000
     47         25.204547   0.000000
     48         26.348414   0.000000
     49         26.410560   0.000000
     50         26.527813   0.000000
     51         27.021366   0.000000
     52         28.245806   0.000000
     53         28.366286   0.000000
     54         28.603856   0.000000
     55         29.606364   0.000000
     56         30.423716   0.000000
     57         30.714145   0.000000
     58         31.176553   0.000000
     59         31.340392   0.000000
     60         31.586614   0.000000
     61         32.048105   0.000000
     62         32.169745   0.000000
     63         32.342100   0.000000
     64         32.984535   0.000000
 
  0.1149425E+00  0.1149425E+00  0.0000000E+00  0.4761905E-02
      1        -60.287425   1.000000
      2        -34.417515   1.000000
      3        -34.363825   1.000000
      4        -34.272890   1.000000
      5        -12.964218   1.000000
      6        -11.982048   1.000000
      7         -4.498156   1.000000
      8         -2.996211   1.000000
      9         -2.476965   1.000000
     10         -1.942343   1.000000
     11         -1.534861   1.000000
     12         -0.360586   1.000000
     13          0.134169   1.000000
     14          2.723028   0.000000
     15          3.042234   0.000000
     16          3.079993   0.000000
     17          4.201871   0.000000
     18          6.534575   0.000000
     19          7.729172   0.000000
     20          8.903177   0.000000
     21         10.033415   0.000000
     22         10.547488   0.000000
     23         10.842201   0.000000
     24         11.785349   0.000000
     25         12.354378   0.000000
     26         13.097271   0.000000
     27         13.587633   0.000000
     28         14.389482   0.000000
     29         14.546733   0.000000
     30         15.707626   0.000000
     31         15.758048   0.000000
     32         17.337962   0.000000
     33         18.125719   0.000000
     34         19.442564   0.000000
     35         19.564285   0.000000
     36         20.165284   0.000000
     37         20.676931   0.000000
     38         20.958754   0.000000
     39         21.773609   0.000000
     40         22.275911   0.000000
     41         23.051017   0.000000
     42         23.283904   0.000000
     43         23.514441   0.000000
     44         23.884663   0.000000
     45         24.482884   0.000000
     46         24.824650   0.000000
     47         25.099837   0.000000
     48         26.398668   0.000000
     49         26.461347   0.000000
     50         26.692667   0.000000
     51         27.097592   0.000000
     52         28.076702   0.000000
     53         28.081534   0.000000
     54         28.547930   0.000000
     55         29.791596   0.000000
     56         30.611288   0.000000
     57         30.639431   0.000000
     58         31.162768   0.000000
     59         31.353362   0.000000
     60         31.481795   0.000000
     61         32.233481   0.000000
     62         32.560337   0.000000
     63         32.668905   0.000000
     64         32.971805   0.000000
 
  0.1264368E+00  0.1264368E+00  0.0000000E+00  0.4761905E-02
      1        -60.285158   1.000000
      2        -34.413045   1.000000
      3        -34.384524   1.000000
      4        -34.280067   1.000000
      5        -12.860043   1.000000
      6        -11.939373   1.000000
      7         -4.428962   1.000000
      8         -3.102742   1.000000
      9         -2.597264   1.000000
     10         -2.122074   1.000000
     11         -1.465493   1.000000
     12         -0.365960   1.000000
     13          0.035620   1.000000
     14          2.652660   0.000000
     15          3.041911   0.000000
     16          3.065848   0.000000
     17          4.334412   0.000000
     18          6.683004   0.000000
     19          7.857382   0.000000
     20          9.176201   0.000000
     21         10.112794   0.000000
     22         10.470296   0.000000
     23         10.701085   0.000000
     24         11.902095   0.000000
     25         12.311290   0.000000
     26         13.018576   0.000000
     27         13.745529   0.000000
     28         14.192920   0.000000
     29         14.566453   0.000000
     30         15.727893   0.000000
     31         15.744341   0.000000
     32         17.405226   0.000000
     33         18.386843   0.000000
     34         18.989154   0.000000
     35         19.091604   0.000000
     36         19.914422   0.000000
     37         20.389912   0.000000
     38         21.225226   0.000000
     39         21.830149   0.000000
     40         22.297541   0.000000
     41         22.702435   0.000000
     42         23.286427   0.000000
     43         23.438507   0.000000
     44         24.192445   0.000000
     45         24.495725   0.000000
     46         24.506516   0.000000
     47         25.293592   0.000000
     48         26.384940   0.000000
     49         26.516723   0.000000
     50         26.870169   0.000000
     51         27.187504   0.000000
     52         27.684487   0.000000
     53         28.051475   0.000000
     54         28.627316   0.000000
     55         29.909971   0.000000
     56         30.260668   0.000000
     57         30.772752   0.000000
     58         31.093563   0.000000
     59         31.358247   0.000000
     60         31.358360   0.000000
     61         32.123759   0.000000
     62         32.540445   0.000000
     63         32.829027   0.000000
     64         33.626791   0.000000
 
  0.1379310E+00  0.1379310E+00  0.0000000E+00  0.4761905E-02
      1        -60.282827   1.000000
      2        -34.408385   1.000000
      3        -34.405222   1.000000
      4        -34.287887   1.000000
      5        -12.750263   1.000000
      6        -11.894370   1.000000
      7         -4.376192   1.000000
      8         -3.186120   1.000000
      9         -2.720225   1.000000
     10         -2.294742   1.000000
     11         -1.411459   1.000000
     12         -0.383555   1.000000
     13         -0.059579   1.000000
     14          2.591618   0.000000
     15          3.022187   0.000000